<?xml version="1.0" encoding="UTF-8"?>

<!-- generated on 2025-04-18 21:04:18 by Eclipse SUMO GUI Version 1.22.0
<sumoConfiguration xmlns:xsi="http://www.w3.org/2001/XMLSchema-instance" xsi:noNamespaceSchemaLocation="http://sumo.dlr.de/xsd/sumoConfiguration.xsd">

    <input>
        <net-file value="../city.net.xml"/>
        <route-files value="../city.rou.xml"/>
        <additional-files value="../city.det.xml"/>
    </input>

    <output>
        <tripinfo-output value="../tripinfo.xml"/>
    </output>

    <time>
        <begin value="0"/>
        <end value="30000"/>
    </time>

    <traci_server>
        <remote-port value="55332"/>
    </traci_server>

    <gui_only>
        <gui-settings-file value="../city.settings.xml"/>
    </gui_only>

</sumoConfiguration>
-->

<tripinfos xmlns:xsi="http://www.w3.org/2001/XMLSchema-instance" xsi:noNamespaceSchemaLocation="http://sumo.dlr.de/xsd/tripinfo_file.xsd">
    <tripinfo id="0" depart="0.00" departLane="NorthWesttoU_0" departPos="5.10" departSpeed="0.00" departDelay="0.00" arrival="87.00" arrivalLane="UtoNorthEast_0" arrivalPos="488.57" arrivalSpeed="12.34" duration="87.00" routeLength="998.33" waitingTime="0.00" waitingCount="0" stopTime="0.00" timeLoss="12.63" rerouteNo="0" devices="tripinfo_0" vType="DEFAULT_VEHTYPE" speedFactor="0.98" vaporized=""/>
    <tripinfo id="24" depart="24.00" departLane="SouthEasttoR_0" departPos="5.10" departSpeed="0.00" departDelay="0.00" arrival="122.00" arrivalLane="RtoEast_0" arrivalPos="474.72" arrivalSpeed="15.29" duration="98.00" routeLength="950.90" waitingTime="23.00" waitingCount="1" stopTime="0.00" timeLoss="36.68" rerouteNo="0" devices="tripinfo_24" vType="DEFAULT_VEHTYPE" speedFactor="1.12" vaporized=""/>
    <tripinfo id="59" depart="61.00" departLane="SouthEasttoR_0" departPos="5.10" departSpeed="0.00" departDelay="2.00" arrival="139.00" arrivalLane="RtoEast_0" arrivalPos="474.72" arrivalSpeed="14.28" duration="78.00" routeLength="950.90" waitingTime="2.00" waitingCount="1" stopTime="0.00" timeLoss="14.82" rerouteNo="0" devices="tripinfo_59" vType="DEFAULT_VEHTYPE" speedFactor="1.09" vaporized=""/>
    <tripinfo id="14" depart="14.00" departLane="SouthEasttoR_0" departPos="5.10" departSpeed="0.00" departDelay="0.00" arrival="147.00" arrivalLane="RtoEast_0" arrivalPos="474.72" arrivalSpeed="14.54" duration="133.00" routeLength="960.77" waitingTime="51.00" waitingCount="2" stopTime="0.00" timeLoss="68.18" rerouteNo="0" devices="tripinfo_14" vType="DEFAULT_VEHTYPE" speedFactor="1.08" vaporized=""/>
    <tripinfo id="73" depart="74.00" departLane="NorthEasttoU_0" departPos="5.10" departSpeed="0.00" departDelay="1.00" arrival="147.00" arrivalLane="UtoNorthWest_0" arrivalPos="488.57" arrivalSpeed="14.97" duration="73.00" routeLength="977.04" waitingTime="0.00" waitingCount="0" stopTime="0.00" timeLoss="7.95" rerouteNo="0" devices="tripinfo_73" vType="DEFAULT_VEHTYPE" speedFactor="1.10" vaporized=""/>
    <tripinfo id="69" depart="69.00" departLane="SouthEasttoR_0" departPos="5.10" departSpeed="0.00" departDelay="0.00" arrival="149.00" arrivalLane="RtoEast_0" arrivalPos="474.72" arrivalSpeed="13.67" duration="80.00" routeLength="960.77" waitingTime="2.00" waitingCount="1" stopTime="0.00" timeLoss="14.26" rerouteNo="0" devices="tripinfo_69" vType="DEFAULT_VEHTYPE" speedFactor="1.06" vaporized=""/>
    <tripinfo id="74" depart="74.00" departLane="EasttoR_0" departPos="5.10" departSpeed="0.00" departDelay="0.00" arrival="160.00" arrivalLane="RtoSouthEast_1" arrivalPos="474.64" arrivalSpeed="15.35" duration="86.00" routeLength="980.51" waitingTime="9.00" waitingCount="1" stopTime="0.00" timeLoss="24.29" rerouteNo="0" devices="tripinfo_74" vType="DEFAULT_VEHTYPE" speedFactor="1.14" vaporized=""/>
    <tripinfo id="35" depart="37.00" departLane="WesttoL_0" departPos="5.10" departSpeed="0.00" departDelay="2.00" arrival="162.00" arrivalLane="LtoSouthWest_0" arrivalPos="474.64" arrivalSpeed="11.43" duration="125.00" routeLength="950.90" waitingTime="35.00" waitingCount="1" stopTime="0.00" timeLoss="48.40" rerouteNo="0" devices="tripinfo_35" vType="DEFAULT_VEHTYPE" speedFactor="0.90" vaporized=""/>
    <tripinfo id="2" depart="2.00" departLane="NorthEasttoU_0" departPos="5.10" departSpeed="0.00" departDelay="0.00" arrival="195.00" arrivalLane="RtoEast_2" arrivalPos="474.72" arrivalSpeed="16.24" duration="193.00" routeLength="1704.19" waitingTime="69.00" waitingCount="2" stopTime="0.00" timeLoss="90.45" rerouteNo="0" devices="tripinfo_2" vType="DEFAULT_VEHTYPE" speedFactor="1.20" vaporized=""/>
    <tripinfo id="21" depart="21.00" departLane="NorthWesttoU_0" departPos="5.10" departSpeed="0.00" departDelay="0.00" arrival="197.00" arrivalLane="RtoEast_0" arrivalPos="474.72" arrivalSpeed="15.61" duration="176.00" routeLength="1703.20" waitingTime="50.00" waitingCount="1" stopTime="0.00" timeLoss="66.84" rerouteNo="0" devices="tripinfo_21" vType="DEFAULT_VEHTYPE" speedFactor="1.13" vaporized=""/>
    <tripinfo id="23" depart="23.00" departLane="NorthEasttoU_0" departPos="5.10" departSpeed="0.00" departDelay="0.00" arrival="197.00" arrivalLane="LtoSouthWest_0" arrivalPos="474.64" arrivalSpeed="15.07" duration="174.00" routeLength="1701.85" waitingTime="45.00" waitingCount="2" stopTime="0.00" timeLoss="67.26" rerouteNo="0" devices="tripinfo_23" vType="DEFAULT_VEHTYPE" speedFactor="1.15" vaporized=""/>
    <tripinfo id="42" depart="42.00" departLane="NorthEasttoU_0" departPos="5.10" departSpeed="0.00" departDelay="0.00" arrival="197.00" arrivalLane="LtoSouthWest_1" arrivalPos="474.64" arrivalSpeed="14.31" duration="155.00" routeLength="1701.85" waitingTime="17.00" waitingCount="2" stopTime="0.00" timeLoss="42.83" rerouteNo="0" devices="tripinfo_42" vType="DEFAULT_VEHTYPE" speedFactor="1.10" vaporized=""/>
    <tripinfo id="20" depart="20.00" departLane="SouthEasttoR_0" departPos="5.10" departSpeed="0.00" departDelay="0.00" arrival="198.00" arrivalLane="UtoNorthWest_0" arrivalPos="488.57" arrivalSpeed="13.14" duration="178.00" routeLength="1701.85" waitingTime="39.00" waitingCount="2" stopTime="0.00" timeLoss="58.65" rerouteNo="0" devices="tripinfo_20" vType="DEFAULT_VEHTYPE" speedFactor="1.03" vaporized=""/>
    <tripinfo id="38" depart="38.00" departLane="NorthEasttoU_0" departPos="5.10" departSpeed="0.00" departDelay="0.00" arrival="201.00" arrivalLane="RtoEast_1" arrivalPos="474.72" arrivalSpeed="14.12" duration="163.00" routeLength="1698.87" waitingTime="26.00" waitingCount="2" stopTime="0.00" timeLoss="47.34" rerouteNo="0" devices="tripinfo_38" vType="DEFAULT_VEHTYPE" speedFactor="1.06" vaporized=""/>
    <tripinfo id="28" depart="28.00" departLane="NorthWesttoU_0" departPos="5.10" departSpeed="0.00" departDelay="0.00" arrival="202.00" arrivalLane="LtoWest_0" arrivalPos="474.72" arrivalSpeed="12.49" duration="174.00" routeLength="1675.13" waitingTime="29.00" waitingCount="1" stopTime="0.00" timeLoss="45.36" rerouteNo="0" devices="tripinfo_28" vType="DEFAULT_VEHTYPE" speedFactor="0.94" vaporized=""/>
    <tripinfo id="33" depart="33.00" departLane="NorthEasttoU_0" departPos="5.10" departSpeed="0.00" departDelay="0.00" arrival="202.00" arrivalLane="LtoWest_1" arrivalPos="474.72" arrivalSpeed="14.38" duration="169.00" routeLength="1692.83" waitingTime="27.00" waitingCount="2" stopTime="0.00" timeLoss="51.32" rerouteNo="0" devices="tripinfo_33" vType="DEFAULT_VEHTYPE" speedFactor="1.04" vaporized=""/>
    <tripinfo id="3" depart="5.00" departLane="NorthEasttoU_0" departPos="5.10" departSpeed="0.00" departDelay="2.00" arrival="203.00" arrivalLane="RtoEast_0" arrivalPos="474.72" arrivalSpeed="14.41" duration="198.00" routeLength="1701.47" waitingTime="59.00" waitingCount="2" stopTime="0.00" timeLoss="80.48" rerouteNo="0" devices="tripinfo_3" vType="DEFAULT_VEHTYPE" speedFactor="1.05" vaporized=""/>
    <tripinfo id="47" depart="47.00" departLane="NorthEasttoU_0" departPos="5.10" departSpeed="0.00" departDelay="0.00" arrival="203.00" arrivalLane="RtoEast_1" arrivalPos="474.72" arrivalSpeed="14.43" duration="156.00" routeLength="1701.47" waitingTime="21.00" waitingCount="1" stopTime="0.00" timeLoss="46.54" rerouteNo="0" devices="tripinfo_47" vType="DEFAULT_VEHTYPE" speedFactor="1.12" vaporized=""/>
    <tripinfo id="31" depart="35.00" departLane="SouthEasttoR_0" departPos="5.10" departSpeed="0.00" departDelay="4.00" arrival="204.00" arrivalLane="UtoNorthEast_0" arrivalPos="488.57" arrivalSpeed="13.73" duration="169.00" routeLength="1689.47" waitingTime="24.00" waitingCount="4" stopTime="0.00" timeLoss="50.96" rerouteNo="0" devices="tripinfo_31" vType="DEFAULT_VEHTYPE" speedFactor="1.03" vaporized=""/>
    <tripinfo id="8" depart="10.00" departLane="SouthEasttoR_0" departPos="5.10" departSpeed="0.00" departDelay="2.00" arrival="205.00" arrivalLane="UtoNorthWest_0" arrivalPos="488.57" arrivalSpeed="12.53" duration="195.00" routeLength="1701.85" waitingTime="40.00" waitingCount="2" stopTime="0.00" timeLoss="61.26" rerouteNo="0" devices="tripinfo_8" vType="DEFAULT_VEHTYPE" speedFactor="0.92" vaporized=""/>
    <tripinfo id="56" depart="57.00" departLane="NorthEasttoU_0" departPos="5.10" departSpeed="0.00" departDelay="1.00" arrival="205.00" arrivalLane="LtoSouthWest_0" arrivalPos="474.64" arrivalSpeed="15.45" duration="148.00" routeLength="1701.85" waitingTime="18.00" waitingCount="2" stopTime="0.00" timeLoss="37.76" rerouteNo="0" devices="tripinfo_56" vType="DEFAULT_VEHTYPE" speedFactor="1.12" vaporized=""/>
    <tripinfo id="65" depart="65.00" departLane="NorthEasttoU_0" departPos="5.10" departSpeed="0.00" departDelay="0.00" arrival="205.00" arrivalLane="LtoSouthWest_1" arrivalPos="474.64" arrivalSpeed="13.32" duration="140.00" routeLength="1701.85" waitingTime="0.00" waitingCount="0" stopTime="0.00" timeLoss="17.83" rerouteNo="0" devices="tripinfo_65" vType="DEFAULT_VEHTYPE" speedFactor="1.01" vaporized=""/>
    <tripinfo id="36" depart="36.00" departLane="NorthWesttoU_0" departPos="5.10" departSpeed="0.00" departDelay="0.00" arrival="206.00" arrivalLane="LtoWest_0" arrivalPos="474.72" arrivalSpeed="13.81" duration="170.00" routeLength="1677.72" waitingTime="30.00" waitingCount="2" stopTime="0.00" timeLoss="51.31" rerouteNo="0" devices="tripinfo_36" vType="DEFAULT_VEHTYPE" speedFactor="1.02" vaporized=""/>
    <tripinfo id="17" depart="17.00" departLane="NorthEasttoU_0" departPos="5.10" departSpeed="0.00" departDelay="0.00" arrival="207.00" arrivalLane="LtoSouthWest_0" arrivalPos="474.64" arrivalSpeed="11.91" duration="190.00" routeLength="1701.85" waitingTime="29.00" waitingCount="2" stopTime="0.00" timeLoss="51.90" rerouteNo="0" devices="tripinfo_17" vType="DEFAULT_VEHTYPE" speedFactor="0.89" vaporized=""/>
    <tripinfo id="58" depart="58.00" departLane="SouthEasttoR_0" departPos="5.10" departSpeed="0.00" departDelay="0.00" arrival="207.00" arrivalLane="UtoNorthWest_0" arrivalPos="488.57" arrivalSpeed="11.56" duration="149.00" routeLength="1701.85" waitingTime="0.00" waitingCount="0" stopTime="0.00" timeLoss="14.74" rerouteNo="0" devices="tripinfo_58" vType="DEFAULT_VEHTYPE" speedFactor="0.92" vaporized=""/>
    <tripinfo id="68" depart="71.00" departLane="NorthEasttoU_0" departPos="5.10" departSpeed="0.00" departDelay="3.00" arrival="208.00" arrivalLane="RtoEast_0" arrivalPos="474.72" arrivalSpeed="14.45" duration="137.00" routeLength="1706.79" waitingTime="0.00" waitingCount="0" stopTime="0.00" timeLoss="19.78" rerouteNo="0" devices="tripinfo_68" vType="DEFAULT_VEHTYPE" speedFactor="1.05" vaporized=""/>
    <tripinfo id="1" depart="1.00" departLane="EasttoR_0" departPos="5.10" departSpeed="0.00" departDelay="0.00" arrival="209.00" arrivalLane="UtoNorthEast_0" arrivalPos="488.57" arrivalSpeed="14.03" duration="208.00" routeLength="1675.13" waitingTime="80.00" waitingCount="1" stopTime="0.00" timeLoss="95.76" rerouteNo="0" devices="tripinfo_1" vType="DEFAULT_VEHTYPE" speedFactor="1.08" vaporized=""/>
    <tripinfo id="51" depart="51.00" departLane="NorthEasttoU_0" departPos="5.10" departSpeed="0.00" departDelay="0.00" arrival="209.00" arrivalLane="RtoSouthEast_0" arrivalPos="474.64" arrivalSpeed="12.59" duration="158.00" routeLength="1705.44" waitingTime="4.00" waitingCount="1" stopTime="0.00" timeLoss="21.67" rerouteNo="0" devices="tripinfo_51" vType="DEFAULT_VEHTYPE" speedFactor="0.91" vaporized=""/>
    <tripinfo id="54" depart="54.00" departLane="NorthEasttoU_0" departPos="5.10" departSpeed="0.00" departDelay="0.00" arrival="210.00" arrivalLane="RtoEast_1" arrivalPos="474.72" arrivalSpeed="12.02" duration="156.00" routeLength="1698.87" waitingTime="4.00" waitingCount="1" stopTime="0.00" timeLoss="23.29" rerouteNo="0" devices="tripinfo_54" vType="DEFAULT_VEHTYPE" speedFactor="0.93" vaporized=""/>
    <tripinfo id="55" depart="55.00" departLane="NorthWesttoU_0" departPos="5.10" departSpeed="0.00" departDelay="0.00" arrival="212.00" arrivalLane="LtoSouthWest_0" arrivalPos="474.64" arrivalSpeed="13.65" duration="157.00" routeLength="1684.15" waitingTime="25.00" waitingCount="1" stopTime="0.00" timeLoss="41.29" rerouteNo="0" devices="tripinfo_55" vType="DEFAULT_VEHTYPE" speedFactor="1.06" vaporized=""/>
    <tripinfo id="72" depart="73.00" departLane="NorthWesttoU_0" departPos="5.10" departSpeed="0.00" departDelay="1.00" arrival="214.00" arrivalLane="LtoWest_1" arrivalPos="474.72" arrivalSpeed="15.38" duration="141.00" routeLength="1683.04" waitingTime="10.00" waitingCount="2" stopTime="0.00" timeLoss="34.63" rerouteNo="0" devices="tripinfo_72" vType="DEFAULT_VEHTYPE" speedFactor="1.14" vaporized=""/>
    <tripinfo id="81" depart="82.00" departLane="NorthWesttoU_0" departPos="5.10" departSpeed="0.00" departDelay="1.00" arrival="215.00" arrivalLane="LtoWest_0" arrivalPos="474.72" arrivalSpeed="13.86" duration="133.00" routeLength="1675.13" waitingTime="0.00" waitingCount="0" stopTime="0.00" timeLoss="18.85" rerouteNo="0" devices="tripinfo_81" vType="DEFAULT_VEHTYPE" speedFactor="1.06" vaporized=""/>
    <tripinfo id="16" depart="19.00" departLane="EasttoR_0" departPos="5.10" departSpeed="0.00" departDelay="3.00" arrival="217.00" arrivalLane="UtoNorthWest_0" arrivalPos="488.57" arrivalSpeed="13.50" duration="198.00" routeLength="1692.83" waitingTime="63.00" waitingCount="1" stopTime="0.00" timeLoss="79.18" rerouteNo="0" devices="tripinfo_16" vType="DEFAULT_VEHTYPE" speedFactor="1.03" vaporized=""/>
    <tripinfo id="57" depart="58.00" departLane="NorthWesttoU_0" departPos="5.10" departSpeed="0.00" departDelay="1.00" arrival="219.00" arrivalLane="LtoWest_0" arrivalPos="474.72" arrivalSpeed="13.24" duration="161.00" routeLength="1680.45" waitingTime="22.00" waitingCount="2" stopTime="0.00" timeLoss="43.79" rerouteNo="0" devices="tripinfo_57" vType="DEFAULT_VEHTYPE" speedFactor="1.03" vaporized=""/>
    <tripinfo id="50" depart="50.00" departLane="NorthWesttoU_0" departPos="5.10" departSpeed="0.00" departDelay="0.00" arrival="220.00" arrivalLane="RtoEast_0" arrivalPos="474.72" arrivalSpeed="12.10" duration="170.00" routeLength="1703.20" waitingTime="24.00" waitingCount="1" stopTime="0.00" timeLoss="41.54" rerouteNo="0" devices="tripinfo_50" vType="DEFAULT_VEHTYPE" speedFactor="0.96" vaporized=""/>
    <tripinfo id="39" depart="39.00" departLane="SouthWesttoL_0" departPos="5.10" departSpeed="0.00" departDelay="0.00" arrival="222.00" arrivalLane="RtoEast_1" arrivalPos="474.72" arrivalSpeed="15.39" duration="183.00" routeLength="1988.31" waitingTime="38.00" waitingCount="2" stopTime="0.00" timeLoss="59.95" rerouteNo="0" devices="tripinfo_39" vType="DEFAULT_VEHTYPE" speedFactor="1.17" vaporized=""/>
    <tripinfo id="13" depart="13.00" departLane="EasttoR_0" departPos="5.10" departSpeed="0.00" departDelay="0.00" arrival="223.00" arrivalLane="UtoNorthEast_0" arrivalPos="488.57" arrivalSpeed="11.97" duration="210.00" routeLength="1675.13" waitingTime="65.00" waitingCount="1" stopTime="0.00" timeLoss="80.45" rerouteNo="0" devices="tripinfo_13" vType="DEFAULT_VEHTYPE" speedFactor="0.94" vaporized=""/>
    <tripinfo id="61" depart="61.00" departLane="SouthWesttoL_0" departPos="5.10" departSpeed="0.00" departDelay="0.00" arrival="224.00" arrivalLane="RtoEast_1" arrivalPos="474.72" arrivalSpeed="14.06" duration="163.00" routeLength="1985.72" waitingTime="5.00" waitingCount="1" stopTime="0.00" timeLoss="22.07" rerouteNo="0" devices="tripinfo_61" vType="DEFAULT_VEHTYPE" speedFactor="1.02" vaporized=""/>
    <tripinfo id="49" depart="49.00" departLane="SouthWesttoL_0" departPos="5.10" departSpeed="0.00" departDelay="0.00" arrival="225.00" arrivalLane="UtoNorthEast_1" arrivalPos="488.57" arrivalSpeed="12.99" duration="176.00" routeLength="1701.85" waitingTime="33.00" waitingCount="1" stopTime="0.00" timeLoss="51.17" rerouteNo="0" devices="tripinfo_49" vType="DEFAULT_VEHTYPE" speedFactor="0.99" vaporized=""/>
    <tripinfo id="7" depart="9.00" departLane="SouthWesttoL_0" departPos="5.10" departSpeed="0.00" departDelay="2.00" arrival="226.00" arrivalLane="RtoEast_1" arrivalPos="474.72" arrivalSpeed="14.59" duration="217.00" routeLength="1985.72" waitingTime="63.00" waitingCount="2" stopTime="0.00" timeLoss="85.74" rerouteNo="0" devices="tripinfo_7" vType="DEFAULT_VEHTYPE" speedFactor="1.09" vaporized=""/>
    <tripinfo id="43" depart="43.00" departLane="NorthWesttoU_0" departPos="5.10" departSpeed="0.00" departDelay="0.00" arrival="226.00" arrivalLane="RtoEast_0" arrivalPos="474.72" arrivalSpeed="11.28" duration="183.00" routeLength="1703.20" waitingTime="29.00" waitingCount="1" stopTime="0.00" timeLoss="45.82" rerouteNo="0" devices="tripinfo_43" vType="DEFAULT_VEHTYPE" speedFactor="0.90" vaporized=""/>
    <tripinfo id="64" depart="67.00" departLane="SouthWesttoL_0" departPos="5.10" departSpeed="0.00" departDelay="3.00" arrival="227.00" arrivalLane="UtoNorthWest_0" arrivalPos="488.57" arrivalSpeed="13.33" duration="160.00" routeLength="1700.12" waitingTime="16.00" waitingCount="1" stopTime="0.00" timeLoss="34.77" rerouteNo="0" devices="tripinfo_64" vType="DEFAULT_VEHTYPE" speedFactor="0.98" vaporized=""/>
    <tripinfo id="11" depart="12.00" departLane="WesttoL_0" departPos="5.10" departSpeed="0.00" departDelay="1.00" arrival="228.00" arrivalLane="RtoEast_0" arrivalPos="474.72" arrivalSpeed="12.81" duration="216.00" routeLength="1994.90" waitingTime="43.00" waitingCount="1" stopTime="0.00" timeLoss="60.64" rerouteNo="0" devices="tripinfo_11" vType="DEFAULT_VEHTYPE" speedFactor="0.93" vaporized=""/>
    <tripinfo id="25" depart="25.00" departLane="WesttoL_0" departPos="5.10" departSpeed="0.00" departDelay="0.00" arrival="229.00" arrivalLane="UtoNorthWest_0" arrivalPos="488.57" arrivalSpeed="13.29" duration="204.00" routeLength="1706.79" waitingTime="60.00" waitingCount="1" stopTime="0.00" timeLoss="80.01" rerouteNo="0" devices="tripinfo_25" vType="DEFAULT_VEHTYPE" speedFactor="0.99" vaporized=""/>
    <tripinfo id="80" depart="80.00" departLane="WesttoL_0" departPos="5.10" departSpeed="0.00" departDelay="0.00" arrival="229.00" arrivalLane="UtoNorthEast_0" arrivalPos="488.57" arrivalSpeed="12.92" duration="149.00" routeLength="1700.60" waitingTime="3.00" waitingCount="1" stopTime="0.00" timeLoss="23.24" rerouteNo="0" devices="tripinfo_80" vType="DEFAULT_VEHTYPE" speedFactor="0.98" vaporized=""/>
    <tripinfo id="88" depart="88.00" departLane="WesttoL_0" departPos="5.10" departSpeed="0.00" departDelay="0.00" arrival="229.00" arrivalLane="UtoNorthWest_1" arrivalPos="488.57" arrivalSpeed="15.45" duration="141.00" routeLength="1704.19" waitingTime="7.00" waitingCount="1" stopTime="0.00" timeLoss="31.67" rerouteNo="0" devices="tripinfo_88" vType="DEFAULT_VEHTYPE" speedFactor="1.13" vaporized=""/>
    <tripinfo id="93" depart="94.00" departLane="WesttoL_0" departPos="5.10" departSpeed="0.00" departDelay="1.00" arrival="231.00" arrivalLane="UtoNorthWest_1" arrivalPos="488.57" arrivalSpeed="13.73" duration="137.00" routeLength="1701.47" waitingTime="0.00" waitingCount="0" stopTime="0.00" timeLoss="17.02" rerouteNo="0" devices="tripinfo_93" vType="DEFAULT_VEHTYPE" speedFactor="1.02" vaporized=""/>
    <tripinfo id="53" depart="53.00" departLane="SouthWesttoL_0" departPos="5.10" departSpeed="0.00" departDelay="0.00" arrival="232.00" arrivalLane="RtoEast_0" arrivalPos="474.72" arrivalSpeed="13.21" duration="179.00" routeLength="1988.31" waitingTime="19.00" waitingCount="1" stopTime="0.00" timeLoss="38.06" rerouteNo="0" devices="tripinfo_53" vType="DEFAULT_VEHTYPE" speedFactor="1.02" vaporized=""/>
    <tripinfo id="84" depart="84.00" departLane="WesttoL_0" departPos="5.10" departSpeed="0.00" departDelay="0.00" arrival="237.00" arrivalLane="RtoEast_0" arrivalPos="474.72" arrivalSpeed="14.08" duration="153.00" routeLength="1994.90" waitingTime="0.00" waitingCount="0" stopTime="0.00" timeLoss="12.35" rerouteNo="0" devices="tripinfo_84" vType="DEFAULT_VEHTYPE" speedFactor="1.02" vaporized=""/>
    <tripinfo id="71" depart="71.00" departLane="WesttoL_0" departPos="5.10" departSpeed="0.00" departDelay="0.00" arrival="238.00" arrivalLane="UtoNorthEast_0" arrivalPos="488.57" arrivalSpeed="11.46" duration="167.00" routeLength="1703.20" waitingTime="6.00" waitingCount="2" stopTime="0.00" timeLoss="31.51" rerouteNo="0" devices="tripinfo_71" vType="DEFAULT_VEHTYPE" speedFactor="0.91" vaporized=""/>
    <tripinfo id="19" depart="19.00" departLane="SouthWesttoL_0" departPos="5.10" departSpeed="0.00" departDelay="0.00" arrival="239.00" arrivalLane="RtoSouthEast_0" arrivalPos="474.64" arrivalSpeed="11.56" duration="220.00" routeLength="1976.54" waitingTime="31.00" waitingCount="2" stopTime="0.00" timeLoss="56.63" rerouteNo="0" devices="tripinfo_19" vType="DEFAULT_VEHTYPE" speedFactor="0.87" vaporized=""/>
    <tripinfo id="26" depart="26.00" departLane="SouthWesttoL_0" departPos="5.10" departSpeed="0.00" departDelay="0.00" arrival="242.00" arrivalLane="RtoSouthEast_0" arrivalPos="474.64" arrivalSpeed="13.34" duration="216.00" routeLength="1976.54" waitingTime="35.00" waitingCount="3" stopTime="0.00" timeLoss="68.67" rerouteNo="0" devices="tripinfo_26" vType="DEFAULT_VEHTYPE" speedFactor="0.97" vaporized=""/>
    <tripinfo id="6" depart="6.00" departLane="SouthWesttoL_0" departPos="5.10" departSpeed="0.00" departDelay="0.00" arrival="244.00" arrivalLane="RtoSouthEast_0" arrivalPos="474.64" arrivalSpeed="13.70" duration="238.00" routeLength="1976.54" waitingTime="71.00" waitingCount="3" stopTime="0.00" timeLoss="97.34" rerouteNo="0" devices="tripinfo_6" vType="DEFAULT_VEHTYPE" speedFactor="1.02" vaporized=""/>
    <tripinfo id="34" depart="34.00" departLane="WesttoL_0" departPos="5.10" departSpeed="0.00" departDelay="0.00" arrival="246.00" arrivalLane="UtoNorthEast_0" arrivalPos="488.57" arrivalSpeed="10.55" duration="212.00" routeLength="1703.20" waitingTime="35.00" waitingCount="1" stopTime="0.00" timeLoss="52.25" rerouteNo="0" devices="tripinfo_34" vType="DEFAULT_VEHTYPE" speedFactor="0.77" vaporized=""/>
    <tripinfo id="10" depart="10.00" departLane="WesttoL_0" departPos="5.10" departSpeed="0.00" departDelay="0.00" arrival="247.00" arrivalLane="RtoSouthEast_0" arrivalPos="474.64" arrivalSpeed="11.62" duration="237.00" routeLength="1988.31" waitingTime="55.00" waitingCount="2" stopTime="0.00" timeLoss="77.19" rerouteNo="0" devices="tripinfo_10" vType="DEFAULT_VEHTYPE" speedFactor="0.90" vaporized=""/>
    <tripinfo id="89" depart="91.00" departLane="WesttoL_0" departPos="5.10" departSpeed="0.00" departDelay="2.00" arrival="249.00" arrivalLane="RtoEast_0" arrivalPos="474.72" arrivalSpeed="12.62" duration="158.00" routeLength="1994.90" waitingTime="0.00" waitingCount="0" stopTime="0.00" timeLoss="12.99" rerouteNo="0" devices="tripinfo_89" vType="DEFAULT_VEHTYPE" speedFactor="0.99" vaporized=""/>
    <tripinfo id="9" depart="12.00" departLane="SouthWesttoL_0" departPos="5.10" departSpeed="0.00" departDelay="3.00" arrival="250.00" arrivalLane="RtoSouthEast_0" arrivalPos="474.64" arrivalSpeed="15.49" duration="238.00" routeLength="1979.13" waitingTime="75.00" waitingCount="4" stopTime="0.00" timeLoss="110.24" rerouteNo="0" devices="tripinfo_9" vType="DEFAULT_VEHTYPE" speedFactor="1.12" vaporized=""/>
    <tripinfo id="29" depart="29.00" departLane="SouthEasttoR_0" departPos="5.10" departSpeed="0.00" departDelay="0.00" arrival="271.00" arrivalLane="LtoWest_1" arrivalPos="474.72" arrivalSpeed="15.29" duration="242.00" routeLength="1993.49" waitingTime="89.00" waitingCount="2" stopTime="0.00" timeLoss="111.24" rerouteNo="0" devices="tripinfo_29" vType="DEFAULT_VEHTYPE" speedFactor="1.10" vaporized=""/>
    <tripinfo id="78" depart="79.00" departLane="SouthEasttoR_0" departPos="5.10" departSpeed="0.00" departDelay="1.00" arrival="272.00" arrivalLane="LtoWest_0" arrivalPos="474.72" arrivalSpeed="14.09" duration="193.00" routeLength="1993.49" waitingTime="41.00" waitingCount="1" stopTime="0.00" timeLoss="59.39" rerouteNo="0" devices="tripinfo_78" vType="DEFAULT_VEHTYPE" speedFactor="1.08" vaporized=""/>
    <tripinfo id="66" depart="66.00" departLane="EasttoR_0" departPos="5.10" departSpeed="0.00" departDelay="0.00" arrival="276.00" arrivalLane="UtoNorthWest_0" arrivalPos="488.57" arrivalSpeed="12.05" duration="210.00" routeLength="1692.83" waitingTime="49.00" waitingCount="3" stopTime="0.00" timeLoss="79.91" rerouteNo="0" devices="tripinfo_66" vType="DEFAULT_VEHTYPE" speedFactor="0.94" vaporized=""/>
    <tripinfo id="76" depart="76.00" departLane="SouthEasttoR_0" departPos="5.10" departSpeed="0.00" departDelay="0.00" arrival="278.00" arrivalLane="LtoWest_0" arrivalPos="474.72" arrivalSpeed="12.37" duration="202.00" routeLength="1996.09" waitingTime="32.00" waitingCount="1" stopTime="0.00" timeLoss="50.47" rerouteNo="0" devices="tripinfo_76" vType="DEFAULT_VEHTYPE" speedFactor="0.95" vaporized=""/>
    <tripinfo id="94" depart="94.00" departLane="EasttoR_0" departPos="5.10" departSpeed="0.00" departDelay="0.00" arrival="278.00" arrivalLane="UtoNorthEast_0" arrivalPos="488.57" arrivalSpeed="11.98" duration="184.00" routeLength="1675.13" waitingTime="31.00" waitingCount="1" stopTime="0.00" timeLoss="47.55" rerouteNo="0" devices="tripinfo_94" vType="DEFAULT_VEHTYPE" speedFactor="0.89" vaporized=""/>
    <tripinfo id="4" depart="4.00" departLane="SouthEasttoR_0" departPos="5.10" departSpeed="0.00" departDelay="0.00" arrival="279.00" arrivalLane="LtoSouthWest_0" arrivalPos="474.64" arrivalSpeed="13.90" duration="275.00" routeLength="1997.28" waitingTime="113.00" waitingCount="2" stopTime="0.00" timeLoss="140.88" rerouteNo="0" devices="tripinfo_4" vType="DEFAULT_VEHTYPE" speedFactor="1.08" vaporized=""/>
    <tripinfo id="18" depart="22.00" departLane="EasttoR_0" departPos="5.10" departSpeed="0.00" departDelay="4.00" arrival="279.00" arrivalLane="LtoSouthWest_1" arrivalPos="474.64" arrivalSpeed="12.73" duration="257.00" routeLength="1993.49" waitingTime="89.00" waitingCount="2" stopTime="0.00" timeLoss="114.04" rerouteNo="0" devices="tripinfo_18" vType="DEFAULT_VEHTYPE" speedFactor="1.01" vaporized=""/>
    <tripinfo id="46" depart="46.00" departLane="EasttoR_0" departPos="5.10" departSpeed="0.00" departDelay="0.00" arrival="281.00" arrivalLane="LtoSouthWest_1" arrivalPos="474.64" arrivalSpeed="13.47" duration="235.00" routeLength="1993.49" waitingTime="66.00" waitingCount="2" stopTime="0.00" timeLoss="90.63" rerouteNo="0" devices="tripinfo_46" vType="DEFAULT_VEHTYPE" speedFactor="1.00" vaporized=""/>
    <tripinfo id="63" depart="63.00" departLane="EasttoR_0" departPos="5.10" departSpeed="0.00" departDelay="0.00" arrival="281.00" arrivalLane="LtoWest_0" arrivalPos="474.72" arrivalSpeed="13.25" duration="218.00" routeLength="1994.90" waitingTime="45.00" waitingCount="2" stopTime="0.00" timeLoss="70.18" rerouteNo="0" devices="tripinfo_63" vType="DEFAULT_VEHTYPE" speedFactor="0.98" vaporized=""/>
    <tripinfo id="37" depart="38.00" departLane="SouthEasttoR_0" departPos="5.10" departSpeed="0.00" departDelay="1.00" arrival="282.00" arrivalLane="LtoWest_0" arrivalPos="474.72" arrivalSpeed="11.14" duration="244.00" routeLength="1993.49" waitingTime="53.00" waitingCount="2" stopTime="0.00" timeLoss="79.51" rerouteNo="0" devices="tripinfo_37" vType="DEFAULT_VEHTYPE" speedFactor="0.88" vaporized=""/>
    <tripinfo id="70" depart="70.00" departLane="NorthWesttoU_0" departPos="5.10" departSpeed="0.00" departDelay="0.00" arrival="282.00" arrivalLane="RtoEast_0" arrivalPos="474.72" arrivalSpeed="10.82" duration="212.00" routeLength="1703.20" waitingTime="49.00" waitingCount="2" stopTime="0.00" timeLoss="68.74" rerouteNo="0" devices="tripinfo_70" vType="DEFAULT_VEHTYPE" speedFactor="0.86" vaporized=""/>
    <tripinfo id="15" depart="16.00" departLane="EasttoR_0" departPos="5.10" departSpeed="0.00" departDelay="1.00" arrival="284.00" arrivalLane="LtoSouthWest_1" arrivalPos="474.64" arrivalSpeed="12.87" duration="268.00" routeLength="1993.49" waitingTime="99.00" waitingCount="2" stopTime="0.00" timeLoss="125.71" rerouteNo="0" devices="tripinfo_15" vType="DEFAULT_VEHTYPE" speedFactor="1.01" vaporized=""/>
    <tripinfo id="5" depart="7.00" departLane="SouthEasttoR_0" departPos="5.10" departSpeed="0.00" departDelay="2.00" arrival="286.00" arrivalLane="LtoSouthWest_0" arrivalPos="474.64" arrivalSpeed="12.67" duration="279.00" routeLength="1994.68" waitingTime="97.00" waitingCount="2" stopTime="0.00" timeLoss="125.22" rerouteNo="0" devices="tripinfo_5" vType="DEFAULT_VEHTYPE" speedFactor="0.94" vaporized=""/>
    <tripinfo id="22" depart="25.00" departLane="EasttoR_0" departPos="5.10" departSpeed="0.00" departDelay="3.00" arrival="287.00" arrivalLane="LtoWest_0" arrivalPos="474.72" arrivalSpeed="11.85" duration="262.00" routeLength="1994.90" waitingTime="74.00" waitingCount="2" stopTime="0.00" timeLoss="101.20" rerouteNo="0" devices="tripinfo_22" vType="DEFAULT_VEHTYPE" speedFactor="0.89" vaporized=""/>